TITLE = "Voronoi diagram"
Variables = "X","Y","u"
Zone N = 3274, E = 2902, DATAPACKING = POINT, ZONETYPE = FETRIANGLE
8.3679e-01	3.9544e-01	7.3236e-02
8.3679e-01	4.4696e-01	7.3236e-02
8.3174e-01	4.4822e-01	7.3236e-02
8.3170e-01	3.7016e-01	7.3236e-02
8.3419e-01	3.6354e-01	7.3236e-02
8.4416e-01	3.6151e-01	7.3236e-02
8.7838e-01	4.1222e-01	7.3236e-02
8.8727e-01	4.2539e-01	7.3236e-02
8.8161e-01	4.3581e-01	7.3236e-02
7.8027e-01	7.9546e-01	5.1438e-01
7.8154e-01	8.2935e-01	5.1438e-01
7.8027e-01	8.2510e-01	5.1438e-01
7.7310e-01	8.0104e-01	5.1438e-01
7.8114e-01	7.8355e-01	5.1438e-01
8.1106e-01	7.8378e-01	5.1438e-01
8.1398e-01	7.8578e-01	5.1438e-01
7.9922e-01	8.2606e-01	5.1438e-01
9.0753e-01	2.0058e-01	8.8981e-01
9.0753e-01	2.3068e-01	8.8981e-01
8.8589e-01	2.2821e-01	8.8981e-01
8.8483e-01	2.1945e-01	8.8981e-01
9.0013e-01	2.0169e-01	8.8981e-01
9.1312e-01	1.8660e-01	8.8981e-01
9.1949e-01	1.8935e-01	8.8981e-01
9.5132e-01	2.0314e-01	8.8981e-01
9.5073e-01	2.1082e-01	8.8981e-01
9.4501e-01	2.3497e-01	8.8981e-01
3.3687e-01	7.6555e-01	6.1141e-01
3.3687e-01	7.8952e-01	6.1141e-01
3.1765e-01	7.9324e-01	6.1141e-01
3.1500e-01	7.5717e-01	6.1141e-01
3.3831e-01	7.3462e-01	6.1141e-01
3.5286e-01	7.4257e-01	6.1141e-01
3.5983e-01	7.7744e-01	6.1141e-01
3.5885e-01	7.8527e-01	6.1141e-01
2.8000e-01	5.5343e-01	5.3103e-01
3.0493e-01	5.8800e-01	5.3103e-01
2.8000e-01	5.8059e-01	5.3103e-01
2.4433e-01	5.6998e-01	5.3103e-01
2.6900e-01	5.5070e-01	5.3103e-01
2.7335e-01	5.4730e-01	5.3103e-01
2.8224e-01	5.4986e-01	5.3103e-01
3.1178e-01	5.5838e-01	5.3103e-01
3.1584e-01	5.7155e-01	5.3103e-01
4.7762e-01	6.2758e-01	8.2133e-01
4.8892e-01	6.5233e-01	8.2133e-01
4.7762e-01	6.4340e-01	8.2133e-01
4.4575e-01	6.1822e-01	8.2133e-01
4.4681e-01	6.1414e-01	8.2133e-01
4.7177e-01	6.1007e-01	8.2133e-01
4.9856e-01	6.0571e-01	8.2133e-01
5.0579e-01	6.0856e-01	8.2133e-01
5.2035e-01	6.2390e-01	8.2133e-01
3.6614e-01	5.1327e-01	9.5896e-01
3.6614e-01	5.3302e-01	9.5896e-01
3.5568e-01	5.3150e-01	9.5896e-01
3.2188e-01	4.8630e-01	9.5896e-01
3.5690e-01	4.6464e-01	9.5896e-01
3.9481e-01	5.2933e-01	9.5896e-01
3.9985e-01	5.3793e-01	9.5896e-01
6.3435e-01	7.1512e-01	7.3675e-01
6.4943e-01	7.3524e-01	7.3675e-01
6.3435e-01	7.3598e-01	7.3675e-01
6.1052e-01	7.3714e-01	7.3675e-01
6.0199e-01	7.3167e-01	7.3675e-01
5.8131e-01	6.9795e-01	7.3675e-01
5.9593e-01	6.9004e-01	7.3675e-01
6.1182e-01	6.8143e-01	7.3675e-01
6.1726e-01	6.8017e-01	7.3675e-01
6.4645e-01	6.7342e-01	7.3675e-01
6.5484e-01	6.7855e-01	7.3675e-01
6.7828e-01	7.2030e-01	7.3675e-01
1.4519e-01	6.0590e-01	3.4396e-01
1.5465e-01	6.4777e-01	3.4396e-01
1.4519e-01	6.3983e-01	3.4396e-01
1.1853e-01	6.1747e-01	3.4396e-01
1.2292e-01	6.1177e-01	3.4396e-01
1.6547e-01	5.5655e-01	3.4396e-01
1.6729e-01	5.5683e-01	3.4396e-01
1.7739e-01	5.6451e-01	3.4396e-01
1.7567e-01	5.8226e-01	3.4396e-01
1.5981e-01	6.4313e-01	3.4396e-01
2.1138e-02	2.4546e-01	3.5994e-01
2.1138e-02	2.9546e-01	3.5994e-01
0.0000e+00	2.9601e-01	3.5994e-01
0.0000e+00	1.8710e-01	3.5994e-01
2.7877e-02	1.9878e-01	3.5994e-01
7.4207e-02	2.6374e-01	3.5994e-01
8.0613e-02	2.7272e-01	3.5994e-01
8.2966e-02	2.8966e-01	3.5994e-01
8.1597e-02	2.9346e-01	3.5994e-01
8.1032e-02	2.9392e-01	3.5994e-01
1.4086e-01	8.0113e-01	4.3915e-02
1.4086e-01	8.2762e-01	4.3915e-02
1.2721e-01	8.4174e-01	4.3915e-02
8.9546e-02	8.4685e-01	4.3915e-02
8.9284e-02	8.4608e-01	4.3915e-02
1.2922e-01	8.0223e-01	4.3915e-02
1.5607e-01	7.7274e-01	4.3915e-02
1.6746e-01	7.7792e-01	4.3915e-02
1.8234e-01	7.8469e-01	4.3915e-02
1.6011e-01	4.0193e-01	2.3863e-02
1.6981e-01	4.2467e-01	2.3863e-02
1.6011e-01	4.1452e-01	2.3863e-02
1.3562e-01	3.8888e-01	2.3863e-02
1.4186e-01	3.8604e-01	2.3863e-02
1.4502e-01	3.8460e-01	2.3863e-02
1.6650e-01	3.9958e-01	2.3863e-02
1.8169e-01	4.1017e-01	2.3863e-02
1.8166e-01	4.1426e-01	2.3863e-02
1.7000e-01	4.2460e-01	2.3863e-02
1.3349e-01	1.1272e-01	5.0762e-03
1.3697e-01	1.4695e-01	5.0762e-03
1.3349e-01	1.4158e-01	5.0762e-03
1.0550e-01	9.8431e-02	5.0762e-03
1.0953e-01	7.4328e-02	5.0762e-03
1.5472e-01	1.0104e-01	5.0762e-03
1.5500e-01	1.0121e-01	5.0762e-03
1.3825e-01	1.4769e-01	5.0762e-03
9.9394e-01	2.2107e-01	4.8725e-01
1.0000e+00	2.8200e-01	4.8725e-01
9.9394e-01	2.8129e-01	4.8725e-01
9.7098e-01	2.7859e-01	4.8725e-01
9.6067e-01	2.7247e-01	4.8725e-01
9.4501e-01	2.3497e-01	4.8725e-01
9.5073e-01	2.1082e-01	4.8725e-01
9.9499e-01	2.1422e-01	4.8725e-01
1.0000e+00	2.1460e-01	4.8725e-01
5.1280e-01	8.3572e-01	2.9289e-01
5.1280e-01	8.5088e-01	2.9289e-01
4.9578e-01	8.7750e-01	2.9289e-01
4.8614e-01	8.2919e-01	2.9289e-01
4.8953e-01	8.2020e-01	2.9289e-01
5.2149e-01	8.0184e-01	2.9289e-01
5.2648e-01	8.0283e-01	2.9289e-01
5.3095e-01	8.0373e-01	2.9289e-01
5.2376e-01	8.3375e-01	2.9289e-01
6.1151e-01	2.9807e-01	7.0826e-01
6.1173e-01	3.3307e-01	7.0826e-01
6.1151e-01	3.3301e-01	7.0826e-01
5.5917e-01	3.1903e-01	7.0826e-01
5.8273e-01	2.9662e-01	7.0826e-01
5.9752e-01	2.8256e-01	7.0826e-01
6.1840e-01	2.9226e-01	7.0826e-01
6.3453e-01	2.9975e-01	7.0826e-01
6.2261e-01	3.2794e-01	7.0826e-01
6.3618e-01	5.2404e-01	8.2015e-01
6.3618e-01	5.5849e-01	8.2015e-01
6.2710e-01	5.5968e-01	8.2015e-01
6.2420e-01	5.5892e-01	8.2015e-01
6.2141e-01	5.0580e-01	8.2015e-01
6.3384e-01	4.9237e-01	8.2015e-01
6.6521e-01	5.2642e-01	8.2015e-01
6.6840e-01	5.2988e-01	8.2015e-01
6.6959e-01	5.4221e-01	8.2015e-01
6.6051e-01	5.5530e-01	8.2015e-01
4.9365e-01	9.6805e-01	5.0741e-01
5.0403e-01	9.9247e-01	5.0741e-01
4.9365e-01	9.8495e-01	5.0741e-01
4.5778e-01	9.5896e-01	5.0741e-01
4.7689e-01	9.3283e-01	5.0741e-01
4.9576e-01	9.1195e-01	5.0741e-01
4.9806e-01	9.1449e-01	5.0741e-01
2.9459e-01	7.6864e-01	4.6747e-01
2.9742e-01	8.1726e-01	4.6747e-01
2.9459e-01	8.1889e-01	4.6747e-01
2.8951e-01	8.2180e-01	4.6747e-01
2.8642e-01	8.1869e-01	4.6747e-01
2.7418e-01	7.5649e-01	4.6747e-01
2.8645e-01	7.5342e-01	4.6747e-01
2.9770e-01	7.5060e-01	4.6747e-01
3.0735e-01	7.5426e-01	4.6747e-01
3.1500e-01	7.5717e-01	4.6747e-01
3.1765e-01	7.9324e-01	4.6747e-01
5.2648e-01	7.6721e-01	7.8258e-02
5.3095e-01	8.0373e-01	7.8258e-02
5.2648e-01	8.0283e-01	7.8258e-02
5.2149e-01	8.0184e-01	7.8258e-02
5.0623e-01	7.7831e-01	7.8258e-02
5.1297e-01	7.5597e-01	7.8258e-02
5.3050e-01	7.6162e-01	7.8258e-02
5.5214e-01	7.6858e-01	7.8258e-02
5.5612e-01	7.8154e-01	7.8258e-02
5.3620e-01	8.0328e-01	7.8258e-02
4.0123e-01	8.8761e-01	1.9098e-01
4.0123e-01	9.1734e-01	1.9098e-01
3.7721e-01	9.3249e-01	1.9098e-01
3.6888e-01	9.1692e-01	1.9098e-01
3.8953e-01	8.4987e-01	1.9098e-01
3.9945e-01	8.4964e-01	1.9098e-01
4.0124e-01	8.4960e-01	1.9098e-01
4.1551e-01	8.6296e-01	1.9098e-01
4.2552e-01	8.9782e-01	1.9098e-01
4.1830e-01	9.0657e-01	1.9098e-01
2.8548e-01	3.5393e-01	4.8365e-01
2.9108e-01	3.9656e-01	4.8365e-01
2.8548e-01	3.9281e-01	4.8365e-01
2.6523e-01	3.7928e-01	4.8365e-01
2.5307e-01	3.6018e-01	4.8365e-01
2.8902e-01	3.0718e-01	4.8365e-01
3.0719e-01	3.1156e-01	4.8365e-01
3.1903e-01	3.1442e-01	4.8365e-01
3.4147e-01	3.4248e-01	4.8365e-01
3.3924e-01	3.4973e-01	4.8365e-01
8.0465e-01	9.1484e-01	9.2338e-01
8.0465e-01	9.2263e-01	9.2338e-01
7.8701e-01	9.4223e-01	9.2338e-01
7.7152e-01	9.2618e-01	9.2338e-01
7.6555e-01	8.9563e-01	9.2338e-01
7.9254e-01	8.8951e-01	9.2338e-01
8.2627e-01	8.8186e-01	9.2338e-01
8.2051e-01	9.0500e-01	9.2338e-01
5.2574e-01	9.0195e-02	4.3395e-02
5.2574e-01	1.0393e-01	4.3395e-02
5.2278e-01	1.1593e-01	4.3395e-02
5.0335e-01	1.0076e-01	4.3395e-02
5.2001e-01	8.8440e-02	4.3395e-02
5.3168e-01	7.9811e-02	4.3395e-02
1.9529e-01	6.6159e-01	8.4411e-02
2.0266e-01	6.7940e-01	8.4411e-02
1.9529e-01	6.7525e-01	8.4411e-02
1.5386e-01	6.5193e-01	8.4411e-02
1.5465e-01	6.4777e-01	8.4411e-02
1.5981e-01	6.4313e-01	8.4411e-02
1.9074e-01	6.3992e-01	8.4411e-02
1.9608e-01	6.3936e-01	8.4411e-02
8.8633e-01	3.5040e-01	2.4486e-01
9.0745e-01	3.7064e-01	2.4486e-01
8.8633e-01	3.6075e-01	2.4486e-01
8.5415e-01	3.4567e-01	2.4486e-01
8.6121e-01	3.2018e-01	2.4486e-01
9.0015e-01	3.3529e-01	2.4486e-01
9.0637e-01	3.3771e-01	2.4486e-01
6.8530e-02	2.4823e-02	7.1135e-01
9.7986e-02	5.4900e-02	7.1135e-01
6.8530e-02	4.3732e-02	7.1135e-01
3.4361e-02	3.0777e-02	7.1135e-01
4.1349e-02	0.0000e+00	7.1135e-01
1.1696e-01	0.0000e+00	7.1135e-01
1.0895e-01	5.5258e-02	7.1135e-01
1.0852e-01	5.5959e-02	7.1135e-01
4.5812e-01	6.7465e-02	6.1124e-01
4.5812e-01	1.1044e-01	6.1124e-01
4.4217e-01	1.2164e-01	6.1124e-01
4.0555e-01	1.2617e-01	6.1124e-01
3.9742e-01	8.9575e-02	6.1124e-01
3.9989e-01	6.7380e-02	6.1124e-01
4.1168e-01	5.7795e-02	6.1124e-01
4.2675e-01	4.5538e-02	6.1124e-01
4.3517e-01	4.2278e-02	6.1124e-01
4.7493e-01	2.6875e-02	6.1124e-01
4.8869e-01	7.6499e-02	6.1124e-01
4.8505e-01	9.1540e-02	6.1124e-01
2.4090e-01	9.6593e-01	9.2858e-02
1.5429e-01	1.0000e+00	9.2858e-02
1.5561e-01	9.8952e-01	9.2858e-02
1.7291e-01	9.7090e-01	9.2858e-02
1.9285e-01	9.4945e-01	9.2858e-02
2.3579e-01	9.4442e-01	9.2858e-02
2.7326e-01	9.4003e-01	9.2858e-02
2.7801e-01	9.4050e-01	9.2858e-02
2.8289e-01	9.4489e-01	9.2858e-02
2.8351e-01	9.4626e-01	9.2858e-02
2.6593e-01	1.0000e+00	9.2858e-02
8.9819e-01	8.4741e-01	9.6157e-01
8.9819e-01	8.6001e-01	9.6157e-01
8.5998e-01	8.7233e-01	9.6157e-01
8.6954e-01	8.5842e-01	9.6157e-01
8.9076e-01	8.2753e-01	9.6157e-01
9.0890e-01	8.3381e-01	9.6157e-01
9.4290e-01	8.4559e-01	9.6157e-01
2.6900e-01	5.3936e-01	8.6747e-01
2.7335e-01	5.4730e-01	8.6747e-01
2.6900e-01	5.5070e-01	8.6747e-01
2.4433e-01	5.6998e-01	8.6747e-01
2.3793e-01	5.6960e-01	8.6747e-01
2.2985e-01	5.6283e-01	8.6747e-01
2.4500e-01	5.0893e-01	8.6747e-01
2.8107e-01	4.8137e-01	8.6747e-01
2.9996e-01	4.9013e-01	8.6747e-01
3.0001e-01	4.9111e-01	8.6747e-01
3.7645e-01	7.5765e-01	1.6609e-01
3.7645e-01	7.6721e-01	1.6609e-01
3.5983e-01	7.7744e-01	1.6609e-01
3.5286e-01	7.4257e-01	1.6609e-01
3.6353e-01	7.3920e-01	1.6609e-01
3.8792e-01	7.3151e-01	1.6609e-01
3.9558e-01	7.3423e-01	1.6609e-01
4.1742e-01	7.4202e-01	1.6609e-01
5.1241e-01	6.6605e-01	4.7595e-01
5.1241e-01	7.1223e-01	4.7595e-01
5.0909e-01	7.1291e-01	4.7595e-01
4.7104e-01	7.0589e-01	4.7595e-01
4.7001e-01	7.0230e-01	4.7595e-01
4.8892e-01	6.5233e-01	4.7595e-01
5.2035e-01	6.2390e-01	4.7595e-01
5.2626e-01	6.2487e-01	4.7595e-01
5.4221e-01	6.2748e-01	4.7595e-01
5.4830e-01	6.3272e-01	4.7595e-01
5.6446e-01	6.9434e-01	4.7595e-01
5.4956e-01	7.0465e-01	4.7595e-01
5.3129e-01	4.3888e-02	7.5728e-01
5.3129e-01	6.4819e-02	7.5728e-01
5.2737e-01	6.3672e-02	7.5728e-01
5.1096e-01	2.5841e-02	7.5728e-01
5.3779e-01	3.3630e-02	7.5728e-01
5.4827e-01	3.6670e-02	7.5728e-01
5.5484e-01	4.3004e-02	7.5728e-01
5.5509e-01	4.3242e-02	7.5728e-01
5.5738e-01	6.0454e-02	7.5728e-01
5.5511e-01	6.7423e-02	7.5728e-01
5.4102e-01	6.7667e-02	7.5728e-01
4.3826e-01	9.2752e-01	7.7750e-01
4.4328e-01	9.6805e-01	7.7750e-01
4.3826e-01	9.4862e-01	7.7750e-01
4.3132e-01	9.2169e-01	7.7750e-01
4.4016e-01	9.2386e-01	7.7750e-01
4.7689e-01	9.3283e-01	7.7750e-01
4.5778e-01	9.5896e-01	7.7750e-01
9.2650e-01	7.1874e-01	6.9801e-03
9.3090e-01	7.5539e-01	6.9801e-03
9.2650e-01	7.5022e-01	6.9801e-03
8.9419e-01	7.1222e-01	6.9801e-03
8.9418e-01	7.0832e-01	6.9801e-03
9.1671e-01	7.0217e-01	6.9801e-03
9.4957e-01	6.9318e-01	6.9801e-03
9.5567e-01	7.1920e-01	6.9801e-03
9.3794e-01	7.5692e-01	6.9801e-03
9.3377e-01	7.5736e-01	6.9801e-03
2.8645e-01	7.3615e-01	5.7861e-01
2.8645e-01	7.5342e-01	5.7861e-01
2.7418e-01	7.5649e-01	5.7861e-01
2.5009e-01	7.4022e-01	5.7861e-01
2.4486e-01	7.2258e-01	5.7861e-01
2.6053e-01	7.1512e-01	5.7861e-01
2.9494e-01	6.9873e-01	5.7861e-01
2.9770e-01	7.5060e-01	5.7861e-01
6.3858e-01	3.5551e-01	7.3646e-01
6.4482e-01	3.9399e-01	7.3646e-01
6.3858e-01	3.9408e-01	7.3646e-01
6.2245e-01	3.9431e-01	7.3646e-01
6.1173e-01	3.3307e-01	7.3646e-01
6.2261e-01	3.2794e-01	7.3646e-01
6.5177e-01	3.3746e-01	7.3646e-01
6.6839e-01	3.4288e-01	7.3646e-01
6.7152e-01	3.4996e-01	7.3646e-01
6.7225e-01	3.5214e-01	7.3646e-01
6.8598e-01	1.6931e-01	7.4373e-01
6.8598e-01	1.9504e-01	7.4373e-01
6.7369e-01	2.1300e-01	7.4373e-01
6.6732e-01	2.1004e-01	7.4373e-01
6.6260e-01	2.0568e-01	7.4373e-01
6.5910e-01	1.9648e-01	7.4373e-01
6.4916e-01	1.3674e-01	7.4373e-01
6.8551e-01	1.3648e-01	7.4373e-01
6.9015e-01	1.3645e-01	7.4373e-01
6.9389e-01	1.3868e-01	7.4373e-01
7.0915e-01	1.6119e-01	7.4373e-01
4.4070e-01	8.7627e-01	9.2257e-01
4.4070e-01	8.9801e-01	9.2257e-01
4.2552e-01	8.9782e-01	9.2257e-01
4.1551e-01	8.6296e-01	9.2257e-01
4.3918e-01	8.6172e-01	9.2257e-01
4.5257e-01	8.6102e-01	9.2257e-01
4.6403e-01	8.6969e-01	9.2257e-01
4.9602e-01	8.9390e-01	9.2257e-01
4.9649e-01	8.9516e-01	9.2257e-01
4.9525e-01	8.9868e-01	9.2257e-01
2.3168e-01	8.8944e-01	9.6404e-02
2.3168e-01	9.0479e-01	9.6404e-02
2.2967e-01	9.0638e-01	9.6404e-02
2.0531e-01	9.0943e-01	9.6404e-02
1.9479e-01	8.6291e-01	9.6404e-02
2.0191e-01	8.5561e-01	9.6404e-02
2.3540e-01	8.5808e-01	9.6404e-02
2.5122e-01	8.8928e-01	9.6404e-02
3.5186e-01	6.8480e-01	7.8764e-01
3.5186e-01	7.0288e-01	7.8764e-01
3.3049e-01	7.1071e-01	7.8764e-01
3.2051e-01	7.0186e-01	7.8764e-01
3.2326e-01	6.9761e-01	7.8764e-01
3.5724e-01	6.4516e-01	7.8764e-01
3.7974e-01	6.8069e-01	7.8764e-01
3.7347e-01	6.9496e-01	7.8764e-01
9.5190e-01	5.8775e-01	9.4644e-01
9.5516e-01	6.4304e-01	9.4644e-01
9.5190e-01	6.3838e-01	9.4644e-01
9.1118e-01	5.7998e-01	9.4644e-01
9.1107e-01	5.6203e-01	9.4644e-01
9.2696e-01	5.2831e-01	9.4644e-01
9.4532e-01	5.2731e-01	9.4644e-01
1.0000e+00	5.2434e-01	9.4644e-01
1.0000e+00	6.3843e-01	9.4644e-01
9.6588e-01	6.4701e-01	9.4644e-01
4.4016e-01	9.1973e-01	1.0148e-01
4.4016e-01	9.2386e-01	1.0148e-01
4.3132e-01	9.2169e-01	1.0148e-01
4.1830e-01	9.0657e-01	1.0148e-01
4.2552e-01	8.9782e-01	1.0148e-01
4.4070e-01	8.9801e-01	1.0148e-01
4.9525e-01	8.9868e-01	1.0148e-01
4.9576e-01	9.1195e-01	1.0148e-01
4.7689e-01	9.3283e-01	1.0148e-01
3.9945e-01	8.1162e-01	2.7490e-01
4.0124e-01	8.4960e-01	2.7490e-01
3.9945e-01	8.4964e-01	2.7490e-01
3.8953e-01	8.4987e-01	2.7490e-01
3.7555e-01	8.4079e-01	2.7490e-01
3.7269e-01	8.3541e-01	2.7490e-01
3.7260e-01	7.9865e-01	2.7490e-01
3.8499e-01	7.9418e-01	2.7490e-01
4.2099e-01	7.8120e-01	2.7490e-01
4.3173e-01	7.9997e-01	2.7490e-01
4.3041e-01	8.1693e-01	2.7490e-01
6.8238e-01	9.0686e-01	2.3932e-01
6.8745e-01	9.4399e-01	2.3932e-01
6.8238e-01	9.4151e-01	2.3932e-01
6.7229e-01	9.3656e-01	2.3932e-01
6.6485e-01	8.9589e-01	2.3932e-01
6.6567e-01	8.9545e-01	2.3932e-01
7.1731e-01	8.6818e-01	2.3932e-01
4.8267e-01	2.1867e-01	8.0974e-01
5.0244e-01	2.2503e-01	8.0974e-01
4.8267e-01	2.2348e-01	8.0974e-01
4.6462e-01	2.2207e-01	8.0974e-01
4.5795e-01	1.9907e-01	8.0974e-01
4.6119e-01	1.9828e-01	8.0974e-01
4.7682e-01	1.9627e-01	8.0974e-01
4.9538e-01	1.9389e-01	8.0974e-01
9.4575e-01	9.1593e-01	9.5043e-02
9.5196e-01	9.2975e-01	9.5043e-02
9.4575e-01	9.3027e-01	9.5043e-02
9.3291e-01	9.3135e-01	9.5043e-02
9.3862e-01	9.2068e-01	9.5043e-02
9.4813e-01	9.0292e-01	9.5043e-02
1.5118e-01	8.7725e-01	7.4673e-01
1.5118e-01	8.9926e-01	7.4673e-01
1.2476e-01	9.2178e-01	7.4673e-01
1.0840e-01	9.0445e-01	7.4673e-01
8.6323e-02	8.5864e-01	7.4673e-01
8.9546e-02	8.4685e-01	7.4673e-01
1.2721e-01	8.4174e-01	7.4673e-01
1.6733e-01	8.5456e-01	7.4673e-01
1.9372e-01	8.6299e-01	7.4673e-01
6.3967e-01	4.3263e-01	2.7721e-01
6.6304e-01	4.4687e-01	2.7721e-01
6.3967e-01	4.4291e-01	2.7721e-01
6.1024e-01	4.3791e-01	2.7721e-01
6.0252e-01	4.0741e-01	2.7721e-01
6.2245e-01	3.9431e-01	2.7721e-01
6.3858e-01	3.9408e-01	2.7721e-01
6.4482e-01	3.9399e-01	2.7721e-01
6.6948e-01	4.1592e-01	2.7721e-01
6.1840e-01	2.8325e-01	1.7330e-01
6.3453e-01	2.9975e-01	1.7330e-01
6.1840e-01	2.9226e-01	1.7330e-01
5.9752e-01	2.8256e-01	1.7330e-01
5.9903e-01	2.7909e-01	1.7330e-01
6.0779e-01	2.7485e-01	1.7330e-01
6.2983e-01	2.6419e-01	1.7330e-01
6.4248e-01	2.8201e-01	1.7330e-01
6.4061e-01	2.9339e-01	1.7330e-01
7.8314e-01	3.0938e-01	9.3771e-01
7.8570e-01	3.5181e-01	9.3771e-01
7.8314e-01	3.5030e-01	9.3771e-01
7.6279e-01	3.3825e-01	9.3771e-01
7.5949e-01	3.2952e-01	9.3771e-01
7.6606e-01	3.0639e-01	9.3771e-01
7.7301e-01	3.0266e-01	9.3771e-01
7.9838e-01	2.8905e-01	9.3771e-01
8.0827e-01	3.1328e-01	9.3771e-01
7.8596e-01	3.5172e-01	9.3771e-01
4.4756e-01	2.2885e-01	7.6086e-01
4.4963e-01	2.5042e-01	7.6086e-01
4.4756e-01	2.5025e-01	7.6086e-01
3.9986e-01	2.4614e-01	7.6086e-01
4.2244e-01	1.8494e-01	7.6086e-01
4.5795e-01	1.9907e-01	7.6086e-01
4.6462e-01	2.2207e-01	7.6086e-01
4.6493e-01	2.3950e-01	7.6086e-01
1.9066e-01	2.7847e-01	9.6681e-02
1.9066e-01	2.8245e-01	9.6681e-02
1.7856e-01	2.7552e-01	9.6681e-02
1.7981e-01	2.6221e-01	9.6681e-02
2.1107e-01	2.5242e-01	9.6681e-02
2.1788e-01	2.5666e-01	9.6681e-02
2.2899e-01	2.9146e-01	9.6681e-02
2.2143e-01	3.0008e-01	9.6681e-02
5.5588e-01	4.1734e-01	9.8111e-01
5.5588e-01	4.2220e-01	9.8111e-01
5.3061e-01	4.2511e-01	9.8111e-01
5.5190e-01	3.7399e-01	9.8111e-01
5.9409e-01	4.0383e-01	9.8111e-01
5.9828e-01	4.0679e-01	9.8111e-01
5.8428e-01	4.1893e-01	9.8111e-01
1.7291e-01	9.0274e-01	8.4527e-01
1.7291e-01	9.7090e-01	8.4527e-01
1.5561e-01	9.8952e-01	8.4527e-01
1.2476e-01	9.2178e-01	8.4527e-01
1.5118e-01	8.9926e-01	8.4527e-01
1.9372e-01	8.6299e-01	8.4527e-01
1.9479e-01	8.6291e-01	8.4527e-01
2.0531e-01	9.0943e-01	8.4527e-01
1.9285e-01	9.4945e-01	8.4527e-01
1.0714e-01	1.2981e-01	3.4154e-01
1.1275e-01	1.4561e-01	3.4154e-01
1.0714e-01	1.3945e-01	3.4154e-01
8.8541e-02	1.1903e-01	3.4154e-01
1.0550e-01	9.8431e-02	3.4154e-01
1.3349e-01	1.4158e-01	3.4154e-01
1.3697e-01	1.4695e-01	3.4154e-01
4.9549e-01	7.5787e-01	6.9246e-01
5.0623e-01	7.7831e-01	6.9246e-01
4.9549e-01	7.7592e-01	6.9246e-01
4.7915e-01	7.7229e-01	6.9246e-01
4.5453e-01	7.2675e-01	6.9246e-01
4.7104e-01	7.0589e-01	6.9246e-01
5.0909e-01	7.1291e-01	6.9246e-01
5.1297e-01	7.5597e-01	6.9246e-01
9.7990e-01	9.3065e-01	4.5651e-01
9.9109e-01	1.0000e+00	4.5651e-01
9.7990e-01	9.7419e-01	4.5651e-01
9.6147e-01	9.3165e-01	4.5651e-01
1.0000e+00	8.6905e-01	4.5651e-01
1.0000e+00	1.0000e+00	4.5651e-01
6.8260e-01	3.8436e-01	4.3440e-01
6.8260e-01	4.1423e-01	4.3440e-01
6.6948e-01	4.1592e-01	4.3440e-01
6.4482e-01	3.9399e-01	4.3440e-01
6.7225e-01	3.5214e-01	4.3440e-01
7.0115e-01	3.6292e-01	4.3440e-01
7.1273e-01	3.6723e-01	4.3440e-01
7.2205e-01	4.0916e-01	4.3440e-01
7.4727e-01	3.6998e-01	6.5403e-01
7.4727e-01	4.1734e-01	6.5403e-01
7.2969e-01	4.1513e-01	6.5403e-01
7.2205e-01	4.0916e-01	6.5403e-01
7.1273e-01	3.6723e-01	6.5403e-01
7.1914e-01	3.5887e-01	6.5403e-01
7.2842e-01	3.5449e-01	6.5403e-01
7.6279e-01	3.3825e-01	6.5403e-01
7.8314e-01	3.5030e-01	6.5403e-01
7.8570e-01	3.5181e-01	6.5403e-01
7.6880e-01	4.2004e-01	6.5403e-01
2.9622e-01	2.3494e-01	3.2398e-01
2.9622e-01	2.5152e-01	3.2398e-01
2.8031e-01	2.5753e-01	3.2398e-01
2.6173e-01	2.2344e-01	3.2398e-01
2.6767e-01	1.8935e-01	3.2398e-01
2.7000e-01	1.8814e-01	3.2398e-01
3.1007e-01	2.3799e-01	3.2398e-01
3.1354e-01	2.4230e-01	3.2398e-01
3.1360e-01	2.4495e-01	3.2398e-01
5.8364e-01	2.4697e-01	6.0049e-01
5.9352e-01	2.5784e-01	6.0049e-01
5.8364e-01	2.5741e-01	6.0049e-01
5.7239e-01	2.5692e-01	6.0049e-01
5.7554e-01	2.2006e-01	6.0049e-01
5.8919e-01	2.1540e-01	6.0049e-01
5.9295e-01	2.1595e-01	6.0049e-01
5.9653e-01	2.1648e-01	6.0049e-01
5.9863e-01	2.1796e-01	6.0049e-01
6.0539e-01	2.3786e-01	6.0049e-01
1.5587e-01	7.2983e-01	1.2998e-01
1.5587e-01	7.4148e-01	1.2998e-01
1.3762e-01	7.5802e-01	1.2998e-01
9.8399e-02	7.4081e-01	1.2998e-01
9.7708e-02	7.3565e-01	1.2998e-01
1.2493e-01	7.1730e-01	1.2998e-01
1.5466e-01	6.9727e-01	1.2998e-01
1.8362e-01	7.1419e-01	1.2998e-01
1.8505e-01	7.1503e-01	1.2998e-01
1.2922e-01	7.9054e-01	8.1265e-02
1.2922e-01	8.0223e-01	8.1265e-02
8.9284e-02	8.4608e-01	8.1265e-02
6.7929e-02	8.0089e-01	8.1265e-02
9.8399e-02	7.4081e-01	8.1265e-02
1.3762e-01	7.5802e-01	8.1265e-02
1.5607e-01	7.7274e-01	8.1265e-02
1.6746e-01	7.4262e-01	3.7800e-01
1.6746e-01	7.7792e-01	3.7800e-01
1.5607e-01	7.7274e-01	3.7800e-01
1.3762e-01	7.5802e-01	3.7800e-01
1.5587e-01	7.4148e-01	3.7800e-01
1.8505e-01	7.1503e-01	3.7800e-01
2.0093e-01	7.1928e-01	3.7800e-01
1.8259e-01	7.8469e-01	3.7800e-01
1.8234e-01	7.8469e-01	3.7800e-01
7.8785e-02	9.4560e-01	1.3696e-01
1.9159e-02	1.0000e+00	1.3696e-01
3.5983e-02	9.5830e-01	1.3696e-01
6.0462e-02	9.4010e-01	1.3696e-01
1.0840e-01	9.0445e-01	1.3696e-01
1.2476e-01	9.2178e-01	1.3696e-01
1.5561e-01	9.8952e-01	1.3696e-01
1.5429e-01	1.0000e+00	1.3696e-01
5.7004e-02	5.2135e-01	6.5988e-01
5.7004e-02	5.4131e-01	6.5988e-01
5.1005e-02	5.4228e-01	6.5988e-01
4.4379e-02	4.8599e-01	6.5988e-01
5.3671e-02	4.8556e-01	6.5988e-01
7.5623e-02	4.8454e-01	6.5988e-01
1.0180e-01	5.3410e-01	6.5988e-01
1.7945e-01	2.4266e-01	1.1446e-01
1.7981e-01	2.6221e-01	1.1446e-01
1.7945e-01	2.6206e-01	1.1446e-01
1.5129e-01	2.5087e-01	1.1446e-01
1.5630e-01	2.3104e-01	1.1446e-01
1.8143e-01	2.3381e-01	1.1446e-01
2.0402e-01	2.3631e-01	1.1446e-01
2.1107e-01	2.5242e-01	1.1446e-01
7.9482e-01	7.3033e-01	8.8068e-01
7.9482e-01	7.4678e-01	8.8068e-01
7.9112e-01	7.4966e-01	8.8068e-01
7.7312e-01	7.4029e-01	8.8068e-01
7.7944e-01	7.3285e-01	8.8068e-01
8.0417e-01	7.0373e-01	8.8068e-01
8.1021e-01	7.0418e-01	8.8068e-01
8.1570e-01	7.3056e-01	8.8068e-01
6.5500e-01	9.6273e-01	5.8245e-01
6.5500e-01	9.7655e-01	5.8245e-01
6.4485e-01	9.7678e-01	5.8245e-01
6.4867e-01	9.3781e-01	5.8245e-01
6.5234e-01	9.3761e-01	5.8245e-01
6.7229e-01	9.3656e-01	5.8245e-01
6.8238e-01	9.4151e-01	5.8245e-01
6.8745e-01	9.4399e-01	5.8245e-01
7.0744e-01	9.7296e-01	5.8245e-01
7.0745e-01	9.7297e-01	5.8245e-01
7.0754e-01	9.7535e-01	5.8245e-01
9.7546e-02	1.3855e-01	2.1086e-01
9.7546e-02	1.5103e-01	2.1086e-01
8.0887e-02	1.5697e-01	2.1086e-01
6.7494e-02	1.3268e-01	2.1086e-01
7.4389e-02	1.2821e-01	2.1086e-01
8.8541e-02	1.1903e-01	2.1086e-01
1.0714e-01	1.3945e-01	2.1086e-01
1.1275e-01	1.4561e-01	2.1086e-01
5.2001e-01	8.2450e-02	6.6833e-01
5.2001e-01	8.8440e-02	6.6833e-01
5.0335e-01	1.0076e-01	6.6833e-01
4.8505e-01	9.1540e-02	6.6833e-01
4.8869e-01	7.6499e-02	6.6833e-01
5.1025e-01	6.9351e-02	6.6833e-01
5.2737e-01	6.3672e-02	6.6833e-01
5.3129e-01	6.4819e-02	6.6833e-01
5.4102e-01	6.7667e-02	6.6833e-01
5.3168e-01	7.9811e-02	6.6833e-01
7.4207e-02	2.0761e-01	5.2888e-01
8.0613e-02	2.7272e-01	5.2888e-01
7.4207e-02	2.6374e-01	5.2888e-01
2.7877e-02	1.9878e-01	5.2888e-01
5.6419e-02	1.8783e-01	5.2888e-01
8.1116e-02	1.7836e-01	5.2888e-01
1.0544e-01	1.9455e-01	5.2888e-01
1.1072e-01	1.9807e-01	5.2888e-01
4.6181e-01	8.1648e-01	3.1234e-01
4.6181e-01	8.3105e-01	3.1234e-01
4.5066e-01	8.3191e-01	3.1234e-01
4.3041e-01	8.1693e-01	3.1234e-01
4.3173e-01	7.9997e-01	3.1234e-01
4.5814e-01	7.9745e-01	3.1234e-01
4.6754e-01	7.9655e-01	3.1234e-01
4.8784e-01	8.1839e-01	3.1234e-01
4.8953e-01	8.2020e-01	3.1234e-01
4.8614e-01	8.2919e-01	3.1234e-01
5.7259e-01	7.5303e-01	9.4322e-01
5.7527e-01	7.8140e-01	9.4322e-01
5.7259e-01	7.8142e-01	9.4322e-01
5.5612e-01	7.8154e-01	9.4322e-01
5.5214e-01	7.6858e-01	9.4322e-01
5.4956e-01	7.0465e-01	9.4322e-01
5.6446e-01	6.9434e-01	9.4322e-01
5.8131e-01	6.9795e-01	9.4322e-01
6.0199e-01	7.3167e-01	9.4322e-01
5.6419e-02	1.6123e-01	7.6821e-01
5.6419e-02	1.8783e-01	7.6821e-01
2.7877e-02	1.9878e-01	7.6821e-01
0.0000e+00	1.8710e-01	7.6821e-01
0.0000e+00	1.1502e-01	7.6821e-01
1.3734e-02	1.1613e-01	7.6821e-01
6.7494e-02	1.3268e-01	7.6821e-01
8.0887e-02	1.5697e-01	7.6821e-01
8.1116e-02	1.7836e-01	7.6821e-01
9.9499e-01	2.0729e-01	1.2209e-01
1.0000e+00	2.1460e-01	1.2209e-01
9.9499e-01	2.1422e-01	1.2209e-01
9.5073e-01	2.1082e-01	1.2209e-01
9.5132e-01	2.0314e-01	1.2209e-01
9.6760e-01	1.6733e-01	1.2209e-01
1.0000e+00	1.4625e-01	1.2209e-01
8.8606e-01	1.2921e-01	3.8265e-02
8.8606e-01	1.3716e-01	3.8265e-02
8.5807e-01	1.5723e-01	3.8265e-02
8.5137e-01	1.5669e-01	3.8265e-02
8.6178e-01	1.4042e-01	3.8265e-02
8.8414e-01	1.0547e-01	3.8265e-02
8.8443e-01	1.0524e-01	3.8265e-02
8.8506e-01	1.0523e-01	3.8265e-02
8.8703e-01	1.0519e-01	3.8265e-02
9.0497e-01	1.2360e-01	3.8265e-02
9.9282e-01	5.8517e-02	5.1494e-01
1.0000e+00	1.1667e-01	5.1494e-01
9.9282e-01	1.1129e-01	5.1494e-01
9.5093e-01	7.9896e-02	5.1494e-01
9.4429e-01	6.8176e-02	5.1494e-01
9.6780e-01	3.8420e-02	5.1494e-01
9.7952e-01	3.5300e-02	5.1494e-01
1.0000e+00	2.9849e-02	5.1494e-01
8.6683e-01	7.6606e-02	3.9930e-01
8.7325e-01	8.9544e-02	3.9930e-01
8.6683e-01	8.7951e-02	3.9930e-01
8.0389e-01	7.2328e-02	3.9930e-01
7.7808e-01	4.5620e-02	3.9930e-01
7.6970e-01	1.4686e-02	3.9930e-01
7.7221e-01	0.0000e+00	3.9930e-01
8.6816e-01	0.0000e+00	3.9930e-01
8.8904e-01	2.7273e-02	3.9930e-01
5.9295e-01	1.8357e-01	2.1157e-01
5.9653e-01	2.1648e-01	2.1157e-01
5.9295e-01	2.1595e-01	2.1157e-01
5.8919e-01	2.1540e-01	2.1157e-01
5.7780e-01	1.8486e-01	2.1157e-01
5.8614e-01	1.7989e-01	2.1157e-01
6.0710e-01	1.6739e-01	2.1157e-01
6.0911e-01	1.8310e-01	2.1157e-01
1.6650e-01	3.9277e-01	4.5265e-01
1.8169e-01	4.1017e-01	4.5265e-01
1.6650e-01	3.9958e-01	4.5265e-01
1.4502e-01	3.8460e-01	4.5265e-01
1.6895e-01	3.6554e-01	4.5265e-01
1.8435e-01	3.7105e-01	4.5265e-01
1.9105e-01	3.7346e-01	4.5265e-01
9.0890e-01	8.1650e-01	1.6016e-01
9.0890e-01	8.3381e-01	1.6016e-01
8.9076e-01	8.2753e-01	1.6016e-01
8.8171e-01	7.9579e-01	1.6016e-01
8.9510e-01	7.9225e-01	1.6016e-01
9.0816e-01	7.8879e-01	1.6016e-01
9.3474e-01	8.2340e-01	1.6016e-01
9.5223e-01	8.4617e-01	1.6016e-01
9.4290e-01	8.4559e-01	1.6016e-01
3.6050e-01	5.5196e-01	3.0825e-01
3.8394e-01	5.8409e-01	3.0825e-01
3.6050e-01	5.7688e-01	3.0825e-01
3.3293e-01	5.6840e-01	3.0825e-01
3.3523e-01	5.6466e-01	3.0825e-01
3.5568e-01	5.3150e-01	3.0825e-01
3.6614e-01	5.3302e-01	3.0825e-01
3.9985e-01	5.3793e-01	3.0825e-01
4.2089e-01	5.5094e-01	3.0825e-01
5.7864e-01	4.5305e-01	4.3376e-01
5.8186e-01	4.5106e-01	4.3376e-01
5.9944e-01	4.6086e-01	4.3376e-01
5.7864e-01	4.6537e-01	4.3376e-01
5.2253e-01	4.7754e-01	4.3376e-01
5.5699e-01	4.4897e-01	4.3376e-01
5.6548e-01	4.4193e-01	4.3376e-01
6.8551e-01	1.0364e-01	5.4349e-03
6.9015e-01	1.3645e-01	5.4349e-03
6.8551e-01	1.3648e-01	5.4349e-03
6.4916e-01	1.3674e-01	5.4349e-03
6.3494e-01	1.2537e-01	5.4349e-03
6.4100e-01	1.1011e-01	5.4349e-03
6.8426e-01	1.0086e-01	5.4349e-03
7.0750e-01	9.5884e-02	5.4349e-03
5.3050e-01	7.5472e-01	6.4979e-01
5.5214e-01	7.6858e-01	6.4979e-01
5.3050e-01	7.6162e-01	6.4979e-01
5.1297e-01	7.5597e-01	6.4979e-01
5.0909e-01	7.1291e-01	6.4979e-01
5.1241e-01	7.1223e-01	6.4979e-01
5.4956e-01	7.0465e-01	6.4979e-01
3.0625e-01	9.8731e-01	1.2622e-01
3.2656e-01	9.6089e-01	1.2622e-01
3.3495e-01	9.6374e-01	1.2622e-01
3.3095e-01	1.0000e+00	1.2622e-01
2.6593e-01	1.0000e+00	1.2622e-01
2.8351e-01	9.4626e-01	1.2622e-01
5.7620e-01	8.7384e-01	4.6195e-01
5.9072e-01	9.1031e-01	4.6195e-01
5.7620e-01	9.0178e-01	4.6195e-01
5.3909e-01	8.7999e-01	4.6195e-01
5.4638e-01	8.6765e-01	4.6195e-01
5.6582e-01	8.4227e-01	4.6195e-01
5.7298e-01	8.4191e-01	4.6195e-01
5.9008e-01	8.4105e-01	4.6195e-01
6.1741e-01	8.7331e-01	4.6195e-01
6.1860e-01	8.7795e-01	4.6195e-01
7.4533e-01	6.2762e-01	8.4185e-02
7.5220e-01	6.6274e-01	8.4185e-02
7.4533e-01	6.4974e-01	8.4185e-02
7.1889e-01	5.9966e-01	8.4185e-02
7.4858e-01	5.7657e-01	8.4185e-02
7.6549e-01	5.8615e-01	8.4185e-02
7.8955e-01	6.3253e-01	8.4185e-02
7.6507e-01	6.5961e-01	8.4185e-02
4.0067e-02	7.4532e-01	7.8025e-01
6.7929e-02	8.0089e-01	7.8025e-01
4.0067e-02	7.9538e-01	7.8025e-01
0.0000e+00	7.8746e-01	7.8025e-01
0.0000e+00	7.4891e-01	7.8025e-01
2.2282e-02	7.3566e-01	7.8025e-01
5.6100e-02	7.1555e-01	7.8025e-01
6.7925e-02	7.2091e-01	7.8025e-01
9.6373e-02	7.3380e-01	7.8025e-01
9.7708e-02	7.3565e-01	7.8025e-01
9.8399e-02	7.4081e-01	7.8025e-01
8.2991e-01	9.2112e-01	7.8593e-01
8.2991e-01	9.7269e-01	7.8593e-01
8.2346e-01	9.8055e-01	7.8593e-01
8.2051e-01	9.0500e-01	7.8593e-01
8.2627e-01	8.8186e-01	7.8593e-01
8.4282e-01	8.7150e-01	7.8593e-01
8.5491e-01	8.7663e-01	7.8593e-01
8.6213e-01	8.8736e-01	7.8593e-01
8.5431e-01	9.4081e-01	7.8593e-01
8.5296e-01	9.4459e-01	7.8593e-01
8.6954e-01	8.2773e-01	6.8468e-01
8.6954e-01	8.5842e-01	6.8468e-01
8.5998e-01	8.7233e-01	6.8468e-01
8.5491e-01	8.7663e-01	6.8468e-01
8.4282e-01	8.7150e-01	6.8468e-01
8.3780e-01	8.6002e-01	6.8468e-01
8.6319e-01	7.8832e-01	6.8468e-01
8.8171e-01	7.9579e-01	6.8468e-01
8.9076e-01	8.2753e-01	6.8468e-01
9.7464e-01	7.4137e-01	9.1023e-01
1.0000e+00	8.0172e-01	9.1023e-01
9.7464e-01	7.8341e-01	9.1023e-01
9.3794e-01	7.5692e-01	9.1023e-01
9.5567e-01	7.1920e-01	9.1023e-01
9.8160e-01	7.2428e-01	9.1023e-01
1.0000e+00	7.2789e-01	9.1023e-01
8.9933e-01	9.7876e-01	8.6720e-01
8.6479e-01	1.0000e+00	8.6720e-01
8.8047e-01	9.8169e-01	8.6720e-01
9.0213e-01	9.5641e-01	8.6720e-01
9.1644e-01	9.5122e-01	8.6720e-01
9.4814e-01	9.9627e-01	8.6720e-01
9.5076e-01	1.0000e+00	8.6720e-01
6.6521e-01	4.9729e-01	6.2674e-02
6.6840e-01	5.2988e-01	6.2674e-02
6.6521e-01	5.2642e-01	6.2674e-02
6.3384e-01	4.9237e-01	6.2674e-02
6.3435e-01	4.8556e-01	6.2674e-02
6.3628e-01	4.8431e-01	6.2674e-02
6.4753e-01	4.7703e-01	6.2674e-02
6.7372e-01	4.9276e-01	6.2674e-02
6.8648e-01	5.0042e-01	6.2674e-02
1.6733e-01	8.2671e-01	4.7183e-02
1.9372e-01	8.6299e-01	4.7183e-02
1.6733e-01	8.5456e-01	4.7183e-02
1.2721e-01	8.4174e-01	4.7183e-02
1.4086e-01	8.2762e-01	4.7183e-02
1.8234e-01	7.8469e-01	4.7183e-02
1.8259e-01	7.8469e-01	4.7183e-02
2.0174e-01	7.9837e-01	4.7183e-02
2.0191e-01	8.5561e-01	4.7183e-02
1.9479e-01	8.6291e-01	4.7183e-02
8.8506e-01	8.1225e-02	5.2707e-01
8.8506e-01	1.0523e-01	5.2707e-01
8.8443e-01	1.0524e-01	5.2707e-01
8.7325e-01	8.9544e-02	5.2707e-01
8.8904e-01	2.7273e-02	5.2707e-01
9.2652e-01	6.1702e-02	5.2707e-01
8.8703e-01	1.0519e-01	5.2707e-01
6.4821e-01	2.5056e-01	1.7713e-01
6.4821e-01	2.5576e-01	1.7713e-01
6.2977e-01	2.6260e-01	1.7713e-01
6.2721e-01	2.5296e-01	1.7713e-01
6.2818e-01	2.5192e-01	1.7713e-01
6.6732e-01	2.1004e-01	1.7713e-01
6.7369e-01	2.1300e-01	1.7713e-01
6.8256e-01	2.2145e-01	1.7713e-01
6.8813e-01	2.4094e-01	1.7713e-01
6.2818e-01	2.3185e-01	9.2787e-01
6.2818e-01	2.5192e-01	9.2787e-01
6.2721e-01	2.5296e-01	9.2787e-01
6.0539e-01	2.3786e-01	9.2787e-01
5.9863e-01	2.1796e-01	9.2787e-01
6.2094e-01	2.1368e-01	9.2787e-01
6.6260e-01	2.0568e-01	9.2787e-01
6.6732e-01	2.1004e-01	9.2787e-01
3.3049e-01	2.3411e-01	1.0952e-01
3.4102e-01	2.6636e-01	1.0952e-01
3.3049e-01	2.5813e-01	1.0952e-01
3.1360e-01	2.4495e-01	1.0952e-01
3.1354e-01	2.4230e-01	1.0952e-01
3.2813e-01	2.1343e-01	1.0952e-01
3.3135e-01	2.1349e-01	1.0952e-01
3.4689e-01	2.1382e-01	1.0952e-01
3.4864e-01	2.1450e-01	1.0952e-01
3.5064e-01	2.1528e-01	1.0952e-01
3.7330e-01	2.4658e-01	1.0952e-01
7.8419e-02	6.3174e-01	3.8800e-01
8.6010e-02	6.6039e-01	3.8800e-01
7.8419e-02	6.5886e-01	3.8800e-01
6.9601e-03	6.4447e-01	3.8800e-01
0.0000e+00	6.3980e-01	3.8800e-01
0.0000e+00	6.1102e-01	3.8800e-01
6.3272e-02	5.9761e-01	3.8800e-01
8.4180e-02	5.9318e-01	3.8800e-01
1.0512e-01	6.1485e-01	3.8800e-01
2.2642e-01	6.4962e-01	5.9619e-01